# vtk DataFile Version 2.0
roloc, Created by Gmsh
ASCII
DATASET UNSTRUCTURED_GRID
POINTS 187 double
-5 0 25
-10 0 25
-10 0 18
-25 0 3
-30 0 2.5
-37.5 0 -3.46944695195361e-15
-5 0 3.46944695195361e-15
-3.117449009293666 3.90915741234015 25
1.112604669781574 4.874639560909118 25
4.504844339512095 2.169418695587791 25
4.504844339512096 -2.16941869558779 25
1.112604669781569 -4.874639560909118 25
-3.117449009293667 -3.90915741234015 25
-6.234898018587333 7.8183148246803 25
2.225209339563148 9.749279121818235 25
9.00968867902419 4.338837391175582 25
9.009688679024192 -4.33883739117558 25
2.225209339563137 -9.749279121818237 25
-6.234898018587334 -7.818314824680299 25
-6.234898018587333 7.8183148246803 18
2.225209339563148 9.749279121818235 18
9.00968867902419 4.338837391175582 18
9.009688679024192 -4.33883739117558 18
2.225209339563137 -9.749279121818237 18
-6.234898018587334 -7.818314824680299 18
-14.39339828220178 -3.525365827030286e-15 7.393398282201792
-22.13640064133025 11.61807930109421 3
-14.2016186682789 20.57459664734141 3
-3.013417006383086 24.81772185245135 3
8.865122176063377 23.37540606713538 3
18.71276870427749 16.57806645601993 3
24.27354543565128 5.98289160718905 3
24.27354543565134 -5.982891607188774 3
18.71276870427768 -16.57806645601971 3
8.865122176063585 -23.37540606713529 3
-3.013417006382904 -24.81772185245137 3
-14.20161866827882 -20.57459664734147 3
-22.13640064133023 -11.61807930109425 3
-27.40636372927802 12.20209929227403 2.5
-20.0739181907657 22.29434476432187 2.5
-9.270509831248329 28.53169548885464 2.5
3.135853898029746 29.83565686104819 2.5
15.00000000000013 25.98076211353308 2.5
24.27050983124854 17.63355756877403 2.5
29.34442802201422 6.237350724532544 2.5
29.34442802201411 -6.237350724533059 2.5
24.27050983124828 -17.63355756877439 2.5
14.99999999999978 -25.98076211353328 2.5
3.135853898029415 -29.83565686104822 2.5
-9.270509831248569 -28.53169548885456 2.5
-20.07391819076581 -22.29434476432177 2.5
-27.40636372927805 -12.20209929227396 2.5
-35.46814656377381 12.17623009517561 -3.46944695195361e-15
-29.59276910236478 23.03297672586251 -3.46944695195361e-15
-20.51055592959106 31.39374293484479 -3.46944695195361e-15
-9.205705767780044 36.35250997272487 -3.46944695195361e-15
3.096725455212336 37.37191848775013 -3.46944695195361e-15
15.06357842448619 34.34149974956473 -3.46944695195361e-15
25.39805893596514 27.58964665024257 -3.46944695195361e-15
32.98026567024323 17.84802723889046 -3.46944695195361e-15
36.98854887760206 6.172297135527723 -3.46944695195361e-15
36.98854887760213 -6.17229713552732 -3.46944695195361e-15
32.98026567024343 -17.84802723889009 -3.46944695195361e-15
25.3980589359654 -27.58964665024233 -3.46944695195361e-15
15.06357842448646 -34.3414997495646 -3.46944695195361e-15
3.096725455212577 -37.37191848775011 -3.46944695195361e-15
-9.205705767779889 -36.35250997272491 -3.46944695195361e-15
-20.51055592959097 -31.39374293484484 -3.46944695195361e-15
-29.59276910236473 -23.03297672586258 -3.46944695195361e-15
-35.4681465637738 -12.17623009517564 -3.46944695195361e-15
-3.117449009293666 3.90915741234015 3.46944695195361e-15
1.112604669781574 4.874639560909118 3.46944695195361e-15
4.504844339512095 2.169418695587791 3.46944695195361e-15
4.504844339512096 -2.16941869558779 3.46944695195361e-15
1.112604669781569 -4.874639560909118 3.46944695195361e-15
-3.117449009293667 -3.90915741234015 3.46944695195361e-15
-5 -1.224646799147353e-15 12.50000000000004
-8.992897510092956 4.373533396804453 21.5
6.234898018587329 -7.818314824680303 21.58669339312949
-9.009688679024194 -4.338837391175575 21.41330660687051
-2.230728655546818 9.748017730047597 21.5
10 5.665538897647979e-15 21.58669339312949
6.234898018587335 7.818314824680299 21.58669339312949
-2.225209339563151 -9.749279121818233 21.58669339312949
11.73529495751411 0 10.99660081561465
-2.611348794198873 -11.44106661176715 10.99660081561458
-2.611348794198871 11.44106661176715 10.99660081561458
9.176020637970362 -13.07716146711687 6.018534211906672
9.5322653527135 13.49210467513919 5.627257378699621
-10.88934841119069 11.15025028365914 6.3224107650896
-10.88934841120339 -11.15025028368095 6.322410765069865
1.740045793094559 -16.34861058555451 5.68161300447685
1.711438881215986 16.4681354810851 5.601902401497343
-10.18472260355519 5.06798821972654 11.72415197463455
-9.748054208312022 -5.961796646975384 11.61538734625611
18.19024617668219 1.314771355008923e-13 4.634849313763482
16.04829064000425 -7.850306335854722 4.805362785827024
16.21187653919356 7.869261380722809 4.72253231803991
6.991943393579495 8.88437980624737 11.87897852369545
6.750645244024327 -8.465041389637884 13.08760961623502
-6.529242240552661 17.45219689242671 4.418076190906767
-5.777285456723202 -16.99035957313262 4.762276551057116
-26.24412008338096 -5.841893156330577 2.811354328661186
-3.51777922688007 32.79226514226438 1.506530100658073
-3.517779226880377 -32.79226514226471 1.506530100657955
-32.78843802964573 -5.992886698260596 1.389462662248641
8.295801763394143 -32.75938031726359 1.235516357108914
8.354814376784114 -0.4835295991484543 5.87897643356485e-16
-7.866261424539752 3.901007097818798 5.87897643356485e-16
-8.034643740411113 -3.896878046506792 5.87897643356485e-16
5.355679636617328 6.367997666886172 5.87897643356485e-16
5.954313590696353 -5.618142533105745 5.87897643356485e-16
-1.760639656408419 8.667890845634616 5.87897643356485e-16
-1.578236918577357 -8.681484334707161 5.87897643356485e-16
5.693987490861359 26.13724957614268 5.87897643356485e-16
6.226123206072202 -25.58881652710151 5.87897643356485e-16
-18.80299570611604 19.37101137371961 5.87897643356485e-16
-18.82047034553814 -19.05789698065188 5.87897643356485e-16
24.78467475635772 9.106470560525388 5.87897643356485e-16
24.99425915038764 -9.403515729338006 5.87897643356485e-16
-26.53485750301407 5.122828321100602 5.87897643356485e-16
-25.93914869714021 14.03756528613697 5.87897643356485e-16
-17.07425258453166 9.183021820593083 5.87897643356485e-16
-18.78929594259347 0.1163144645460008 5.87897643356485e-16
-10.62435293652017 15.5536635394061 5.87897643356485e-16
-10.63134838044845 25.17255888106061 5.87897643356485e-16
-26.93511312682532 -4.932150653598967 5.87897643356485e-16
-2.240358905533914 19.61871490189794 5.87897643356485e-16
-17.77381404535019 -8.976797222158407 5.87897643356485e-16
-25.71806263677044 -13.63521033548949 5.87897643356485e-16
-10.12116052801191 -14.1624712597391 5.87897643356485e-16
-10.50624134175195 -24.47089740056953 5.87897643356485e-16
-1.912023506559073 -18.94658956245737 5.87897643356485e-16
-2.657340021537743 28.93059036391524 5.87897643356485e-16
6.755051453774313 16.86417581630997 5.87897643356485e-16
14.85763053000652 22.30154910667975 5.87897643356485e-16
14.64256530030097 12.14140740286158 5.87897643356485e-16
22.53263903857472 17.79742019183995 5.87897643356485e-16
17.16678318761022 3.103976436399272 5.87897643356485e-16
-2.460224390961227 -28.54614639012069 5.87897643356485e-16
7.146631030087081 -17.02628043926579 5.87897643356485e-16
15.20268263109285 -22.36012335216295 5.87897643356485e-16
14.92186947131561 -12.32133769238163 5.87897643356485e-16
22.69942717180098 -17.904530132603 5.87897643356485e-16
26.45058493867117 -0.3424084479758491 5.87897643356485e-16
18.0916901306174 -4.567859729180409 5.87897643356485e-16
11.37575195480633 5.946565565820812 5.87897643356485e-16
0.7844558027603805 13.65287762081166 5.87897643356485e-16
11.56246317254671 -6.45743899894986 5.87897643356485e-16
-10.88503492292436 8.747871296775614 5.87897643356485e-16
1.324910538509212 -13.29103830937842 5.87897643356485e-16
-11.41527195358755 -8.015860510664051 5.87897643356485e-16
7.285132530665452 10.65870383385904 5.87897643356485e-16
-12.94474807321651 -2.839220118946177 5.87897643356485e-16
-12.73512046774337 3.184832426797882 5.87897643356485e-16
-6.464833396373678 -8.530701363772895 5.87897643356485e-16
-3.750268762202562 -12.72245696601099 5.87897643356485e-16
-5.186225455936496 12.37593467341578 5.87897643356485e-16
7.146624914311897 -10.55724192110494 5.87897643356485e-16
13.31030056447296 -0.4916572650117281 5.87897643356485e-16
-5.942636386155385 7.661577285417508 5.87897643356485e-16
2.38805090697845 8.782933805028151 5.87897643356485e-16
2.792043358944335 -8.604509331841077 5.87897643356485e-16
-9.183290489031389 0.04996305130910272 5.87897643356485e-16
7.397772576929965 3.500113082286578 5.87897643356485e-16
4.999933135083985 0.02585816484652651 3.758020117952148
3.117449009293669 3.909157412340148 21.2752243957274
3.049039442761355 -3.962746330070286 20.93485337488044
-1.112604669781571 -4.874639560909118 3.724775604272597
-1.11260466978157 4.874639560909118 3.724775604272601
3.087507516050224 -3.932848501828334 3.829579965735368
4.460522212830431 -2.259146207939256 7.931476647755135
4.39885042533651 2.376997041545656 7.573872323588446
4.986071903605427 0.3729436580457615 11.95877049856034
3.988337105916107 -3.015487875878915 12.11428560959118
4.555645220649891 -2.060605887492756 16.28483250412792
3.983568838547403 3.021784126729456 16.18421072814617
1.639222628125677 -4.723658452454067 15.27456651232122
1.595695450144571 4.738539440628084 11.57609814941562
-1.186114074309845 4.857276335841322 16.10135621576343
4.996588506467962 -0.1846707801257656 20.87890827993838
-1.536511969467509 -4.758059580089669 20.55304009206635
3.236817607563924 3.810906949187313 3.413474129796747
-0.6582854186872444 4.956476602138233 21.80705374526521
1.790009040345235 -4.668604463379001 9.100030773689022
8.602243710791395 -4.139485137032605 4.690166469443632
8.379938770443971 6.360453933438137 5.193754103743834

CELLS 517 2585
4 160 112 157 86
4 170 162 111 158
4 113 155 156 85
4 162 170 184 87
4 163 108 93 76
4 165 185 107 186
4 160 108 169 93
4 172 171 165 185
4 150 162 113 91
4 147 92 112 161
4 168 109 155 94
4 107 185 159 186
4 108 160 89 93
4 170 158 111 185
4 153 151 109 90
4 162 170 87 158
4 5 4 126 120
4 94 109 155 90
4 118 60 44 144
4 163 109 6 76
4 112 160 169 86
4 170 184 168 162
4 108 163 6 76
4 165 107 164 186
4 161 182 110 186
4 146 164 107 186
4 61 45 144 119
4 170 184 87 185
4 65 115 139 48
4 169 112 92 161
4 112 157 92 147
4 94 153 109 90
4 92 98 161 186
4 161 152 88 186
4 163 25 109 76
4 175 173 84 174
4 87 158 170 185
4 108 149 154 89
4 155 113 168 85
4 168 113 162 91
4 68 50 67 117
4 113 156 150 91
4 170 171 184 185
4 65 106 115 48
4 149 108 160 89
4 159 185 84 186
4 94 168 109 76
4 151 153 128 90
4 89 154 108 93
4 176 21 175 173
4 44 32 31 144
4 53 116 54 39
4 92 161 88 186
4 184 162 87 91
4 160 157 89 86
4 98 169 92 161
4 44 32 144 45
4 139 66 49 131
4 151 155 109 90
4 156 113 85 91
4 93 108 169 76
4 112 157 86 92
4 89 160 169 93
4 107 159 146 186
4 167 78 177 175
4 85 155 156 90
4 174 173 84 171
4 150 158 162 91
4 57 58 42 135
4 162 184 168 91
4 146 159 97 186
4 38 3 4 120
4 78 167 22 175
4 84 95 159 186
4 175 21 180 81
4 94 109 153 25
4 147 152 92 161
4 88 92 152 161
4 56 41 133 114
4 141 47 115 64
4 64 141 47 63
4 25 109 153 163
4 95 84 159 185
4 164 182 165 186
4 152 161 110 186
4 94 155 168 90
4 169 70 108 160
4 172 84 171 185
4 25 94 109 76
4 42 114 57 135
4 98 86 169 178
4 164 72 165 182
4 173 21 175 84
4 175 180 22 81
4 174 84 99 171
4 84 22 175 174
4 169 86 93 178
4 89 169 160 86
4 53 38 121 39
4 6 109 168 76
4 97 159 95 186
4 49 66 67 131
4 9 15 10 81
4 15 8 82 9
4 18 12 11 83
4 169 112 86 92
4 64 47 115 106
4 4 5 126 105
4 25 163 93 76
4 6 169 108 76
4 154 149 122 89
4 40 133 125 55
4 75 109 155 168
4 38 26 3 120
4 113 168 85 91
4 94 85 168 184
4 175 180 21 176
4 144 31 95 32
4 156 101 85 90
4 50 67 117 131
4 165 170 73 185
4 85 168 155 90
4 171 99 184 185
4 98 169 86 92
4 22 21 175 81
4 177 78 22 175
4 158 87 162 91
4 171 84 99 185
4 176 21 173 98
4 138 97 146 159
4 51 50 68 129
4 35 36 101 131
4 84 96 99 185
4 25 128 90 37
4 76 169 93 178
4 77 179 19 183
4 95 159 96 185
4 123 26 25 122
4 122 26 25 89
4 84 173 172 171
4 159 148 96 185
4 86 89 169 93
4 97 84 98 186
4 20 21 82 176
4 111 158 148 185
4 92 88 98 186
4 168 85 94 90
4 54 116 125 39
4 45 32 119 46
4 148 158 87 185
4 21 22 175 84
4 60 59 118 44
4 86 157 100 92
4 177 78 167 23
4 99 87 184 185
4 85 76 24 177
4 104 139 66 49
4 170 111 73 185
4 184 85 168 91
4 125 40 55 54
4 101 156 85 91
4 76 94 85 24
4 76 94 168 184
4 154 123 25 122
4 166 20 82 176
4 9 15 180 166
4 77 7 0 183
4 161 71 110 182
4 180 9 10 81
4 84 97 95 186
4 90 153 128 25
4 157 100 89 86
4 85 76 177 184
4 27 122 124 89
4 96 87 99 185
4 26 25 3 123
4 122 25 154 89
4 85 94 76 184
4 73 107 165 185
4 11 10 16 78
4 25 153 128 123
4 95 97 138 159
4 172 165 182 186
4 15 9 180 81
4 165 171 170 185
4 162 74 170 111
4 135 42 29 30
4 184 99 85 91
4 61 45 119 62
4 36 131 117 130
4 38 4 52 120
4 13 7 77 183
4 6 109 75 168
4 79 24 2 181
4 6 169 70 108
4 47 34 33 141
4 95 96 84 185
4 99 184 87 91
4 152 146 88 186
4 90 94 153 25
4 120 3 126 123
4 121 38 26 39
4 9 8 82 166
4 142 33 87 140
4 148 159 107 185
4 125 116 124 27
4 24 85 177 23
4 149 160 157 89
4 17 11 16 78
4 8 15 82 14
4 15 16 10 81
4 18 11 17 83
4 14 8 13 80
4 13 7 1 77
4 31 118 43 44
4 167 17 83 23
4 35 36 131 49
4 21 173 98 84
4 184 174 99 171
4 182 164 110 186
4 19 2 179 77
4 122 124 116 27
4 57 41 56 114
4 77 19 13 183
4 73 111 107 185
4 97 98 88 186
4 88 135 29 30
4 46 119 45 62
4 137 135 136 30
4 180 21 15 81
4 111 148 107 185
4 166 82 21 176
4 98 173 176 178
4 25 154 89 93
4 143 33 142 141
4 135 29 114 134
4 92 157 100 147
4 22 78 177 23
4 84 99 22 174
4 16 22 167 180
4 58 42 137 43
4 51 37 50 129
4 135 136 88 134
4 93 86 19 179
4 0 76 181 2
4 167 22 16 78
4 123 120 26 122
4 103 133 40 55
4 54 125 40 39
4 148 87 96 185
4 43 137 58 59
4 0 18 79 12
4 27 28 125 40
4 71 161 169 182
4 121 38 52 120
4 140 142 33 141
4 46 33 143 141
4 132 131 139 35
4 92 134 152 147
4 125 27 40 39
4 44 61 45 144
4 72 164 110 182
4 17 167 78 23
4 30 31 118 43
4 165 72 164 107
4 61 44 60 144
4 180 16 22 81
4 36 117 50 37
4 136 88 152 146
4 92 127 114 134
4 180 15 21 166
4 155 130 156 90
4 13 19 80 183
4 101 132 131 130
4 62 46 143 63
4 73 170 74 111
4 30 137 42 43
4 22 167 180 175
4 28 127 125 133
4 167 10 16 180
4 12 18 79 181
4 27 26 122 89
4 33 119 32 46
4 57 41 114 42
4 118 137 43 59
4 120 121 26 122
4 27 116 26 39
4 150 140 158 91
4 0 76 2 179
4 181 17 83 167
4 83 181 167 23
4 175 22 99 174
4 176 20 21 98
4 90 128 117 37
4 29 114 41 42
4 15 9 82 166
4 51 68 69 129
4 120 26 3 123
4 67 50 49 131
4 181 83 24 23
4 98 20 86 178
4 74 170 168 162
4 82 21 15 166
4 82 14 20 166
4 151 128 130 90
4 4 5 52 120
4 88 29 135 134
4 166 21 180 176
4 127 100 157 147
4 132 140 91 115
4 72 110 71 182
4 28 127 114 92
4 142 87 148 158
4 58 42 135 137
4 50 49 131 36
4 97 88 146 186
4 42 135 137 30
4 29 28 114 92
4 33 46 47 141
4 88 136 135 30
4 181 24 76 177
4 118 31 138 144
4 121 52 38 53
4 164 146 110 186
4 165 72 107 73
4 79 2 0 181
4 46 143 119 62
4 10 11 167 78
4 29 88 92 134
4 124 122 149 89
4 154 25 153 163
4 91 35 132 115
4 59 43 118 44
4 116 26 122 27
4 114 29 92 134
4 113 75 155 168
4 86 20 19 179
4 114 41 28 29
4 115 91 35 34
4 179 20 19 80
4 91 140 87 34
4 35 115 34 48
4 122 121 26 116
4 145 159 148 96
4 98 176 20 178
4 2 94 93 76
4 79 0 12 181
4 117 36 90 37
4 34 115 140 141
4 97 31 118 30
4 177 181 24 23
4 132 101 156 130
4 95 138 144 145
4 99 177 85 23
4 168 113 74 162
4 167 16 10 78
4 85 177 99 184
4 25 2 94 93
4 101 156 130 90
4 88 92 134 152
4 65 139 104 48
4 80 20 14 183
4 140 91 115 34
4 136 97 138 118
4 139 132 35 115
4 169 70 160 112
4 110 146 152 186
4 145 95 159 96
4 0 1 7 77
4 183 20 14 166
4 24 76 2 181
4 180 10 16 81
4 11 17 167 78
4 133 28 127 114
4 179 86 20 178
4 88 136 97 146
4 36 101 130 90
4 134 92 127 147
4 124 100 157 127
4 83 12 11 181
4 117 68 50 129
4 137 136 118 30
4 121 116 53 39
4 158 142 87 140
4 119 143 33 142
4 100 127 92 147
4 124 149 157 89
4 27 124 100 89
4 150 156 132 91
4 87 96 33 142
4 181 11 17 167
4 136 88 134 152
4 18 0 79 1
4 32 119 33 96
4 136 88 97 30
4 101 131 36 130
4 161 169 112 71
4 176 179 20 178
4 133 103 41 56
4 129 37 128 126
4 83 11 17 181
4 2 94 76 24
4 79 18 24 181
4 87 158 140 91
4 128 117 37 129
4 99 177 22 175
4 175 99 177 174
4 18 12 83 181
4 150 132 140 91
4 96 145 119 142
4 28 100 127 92
4 35 132 131 101
4 166 179 20 176
4 119 32 144 145
4 148 96 87 142
4 155 151 130 90
4 8 14 82 166
4 136 97 118 30
4 96 119 33 142
4 94 25 93 76
4 19 2 93 76
4 76 93 19 179
4 146 136 97 138
4 95 138 31 144
4 14 8 80 183
4 101 35 132 91
4 83 24 18 181
4 174 99 177 184
4 156 101 132 91
4 80 19 179 183
4 19 2 76 179
4 37 117 50 129
4 123 25 153 154
4 14 8 183 166
4 157 100 124 89
4 80 179 20 183
4 116 121 26 39
4 99 22 177 23
4 131 117 50 36
4 27 125 116 39
4 31 138 97 118
4 32 95 144 145
4 97 95 138 31
4 183 179 20 166
4 138 95 159 145
4 0 2 1 77
4 0 1 2 79
4 42 29 114 135
4 145 32 95 96
4 177 167 181 23
4 169 70 112 71
4 148 145 96 142
4 126 129 37 102
4 126 4 3 120
4 119 32 145 96
4 51 129 126 102
4 168 113 75 74
4 118 137 30 43
4 33 143 119 46
4 115 34 47 141
4 115 35 139 48
4 129 51 37 102
4 28 133 41 114
4 31 118 44 144
4 133 125 28 40
4 131 49 139 35
4 26 38 121 120
4 32 144 45 119
4 126 3 4 102
4 126 5 69 105
4 103 133 55 56
4 66 139 104 65
4 115 64 106 65
4 25 123 37 3
4 25 37 123 128
4 163 93 154 25
4 154 93 163 108
4 161 186 169 182
4 161 169 186 98
4 178 186 169 98
4 185 172 186 165
4 185 186 172 84
4 69 126 51 129
4 69 51 126 105
4 28 27 127 100
4 28 127 27 125
4 124 127 27 100
4 124 27 127 125
4 169 172 186 178
4 169 186 172 182
4 84 186 173 98
4 84 173 186 172
4 178 173 186 98
4 178 186 173 172
4 93 178 179 76
4 179 178 93 86
4 90 117 130 36
4 90 130 117 128
4 34 33 140 87
4 34 140 33 141
4 179 0 77 2
4 179 77 0 183
4 46 141 63 47
4 63 141 46 143
4 183 13 8 80
4 183 8 13 7
4 4 51 126 102
4 4 126 51 105
4 41 40 133 28
4 41 133 40 103
4 47 48 115 106
4 115 48 47 34
4 49 48 139 35
4 49 139 48 104
4 37 126 123 128
4 37 3 126 102
4 126 3 37 123

CELL_TYPES 517
10
10
10
10
10
10
10
10
10
10
10
10
10
10
10
10
10
10
10
10
10
10
10
10
10
10
10
10
10
10
10
10
10
10
10
10
10
10
10
10
10
10
10
10
10
10
10
10
10
10
10
10
10
10
10
10
10
10
10
10
10
10
10
10
10
10
10
10
10
10
10
10
10
10
10
10
10
10
10
10
10
10
10
10
10
10
10
10
10
10
10
10
10
10
10
10
10
10
10
10
10
10
10
10
10
10
10
10
10
10
10
10
10
10
10
10
10
10
10
10
10
10
10
10
10
10
10
10
10
10
10
10
10
10
10
10
10
10
10
10
10
10
10
10
10
10
10
10
10
10
10
10
10
10
10
10
10
10
10
10
10
10
10
10
10
10
10
10
10
10
10
10
10
10
10
10
10
10
10
10
10
10
10
10
10
10
10
10
10
10
10
10
10
10
10
10
10
10
10
10
10
10
10
10
10
10
10
10
10
10
10
10
10
10
10
10
10
10
10
10
10
10
10
10
10
10
10
10
10
10
10
10
10
10
10
10
10
10
10
10
10
10
10
10
10
10
10
10
10
10
10
10
10
10
10
10
10
10
10
10
10
10
10
10
10
10
10
10
10
10
10
10
10
10
10
10
10
10
10
10
10
10
10
10
10
10
10
10
10
10
10
10
10
10
10
10
10
10
10
10
10
10
10
10
10
10
10
10
10
10
10
10
10
10
10
10
10
10
10
10
10
10
10
10
10
10
10
10
10
10
10
10
10
10
10
10
10
10
10
10
10
10
10
10
10
10
10
10
10
10
10
10
10
10
10
10
10
10
10
10
10
10
10
10
10
10
10
10
10
10
10
10
10
10
10
10
10
10
10
10
10
10
10
10
10
10
10
10
10
10
10
10
10
10
10
10
10
10
10
10
10
10
10
10
10
10
10
10
10
10
10
10
10
10
10
10
10
10
10
10
10
10
10
10
10
10
10
10
10
10
10
10
10
10
10
10
10
10
10
10
10
10
10
10
10
10
10
10
10
10
10
10
10
10
10
10
10
10
10
10
10
10
10
10
10
10
10
10
10
10
10
10
10
10
10
10
10
10
10
10
10
10
10
10
10
10
10
10
10
10
10
10
10
10
10
10
10
10
10
10
10
10
10
10
10
10
10
10
10
10
10
10
10
10
10
10
10

CELL_DATA 517
SCALARS CellEntityIds int 1
LOOKUP_TABLE default
13
13
13
13
13
13
13
13
13
13
13
13
13
13
13
13
13
13
13
13
13
13
13
13
13
13
13
13
13
13
13
13
13
13
13
13
13
13
13
13
13
13
13
13
13
13
13
13
13
13
13
13
13
13
13
13
13
13
13
13
13
13
13
13
13
13
13
13
13
13
13
13
13
13
13
13
13
13
13
13
13
13
13
13
13
13
13
13
13
13
13
13
13
13
13
13
13
13
13
13
13
13
13
13
13
13
13
13
13
13
13
13
13
13
13
13
13
13
13
13
13
13
13
13
13
13
13
13
13
13
13
13
13
13
13
13
13
13
13
13
13
13
13
13
13
13
13
13
13
13
13
13
13
13
13
13
13
13
13
13
13
13
13
13
13
13
13
13
13
13
13
13
13
13
13
13
13
13
13
13
13
13
13
13
13
13
13
13
13
13
13
13
13
13
13
13
13
13
13
13
13
13
13
13
13
13
13
13
13
13
13
13
13
13
13
13
13
13
13
13
13
13
13
13
13
13
13
13
13
13
13
13
13
13
13
13
13
13
13
13
13
13
13
13
13
13
13
13
13
13
13
13
13
13
13
13
13
13
13
13
13
13
13
13
13
13
13
13
13
13
13
13
13
13
13
13
13
13
13
13
13
13
13
13
13
13
13
13
13
13
13
13
13
13
13
13
13
13
13
13
13
13
13
13
13
13
13
13
13
13
13
13
13
13
13
13
13
13
13
13
13
13
13
13
13
13
13
13
13
13
13
13
13
13
13
13
13
13
13
13
13
13
13
13
13
13
13
13
13
13
13
13
13
13
13
13
13
13
13
13
13
13
13
13
13
13
13
13
13
13
13
13
13
13
13
13
13
13
13
13
13
13
13
13
13
13
13
13
13
13
13
13
13
13
13
13
13
13
13
13
13
13
13
13
13
13
13
13
13
13
13
13
13
13
13
13
13
13
13
13
13
13
13
13
13
13
13
13
13
13
13
13
13
13
13
13
13
13
13
13
13
13
13
13
13
13
13
13
13
13
13
13
13
13
13
13
13
13
13
13
13
13
13
13
13
13
13
13
13
13
13
13
13
13
13
13
13
13
13
13
13
13
13
13
13
13
13
13
13
13
13
13
13
13
13
13
13
13
13
13
13
13
13
13
13
13
13
13
13
13
13
13
13
13
13
13
13
